data_ice_1h
_audit_creation_method         'generated by CrystalMaker 9.2.7'
_publ_section_comment
;
(Imported from a Crystallographic Information File (CIF) file.)
ICSD code: 107336


Systematic name: Dihydrogen oxide

Structural formula: H2 O

Chemical formula (sum): H2 O1


Crystal structure data from: Goto, A., Hondoh, T., Mae, S.  Lattice constants 
and thermal expansion of H2O and D2O ice 1h between 10 and 265 K. 

;
_cell_length_a                   4.5214(2)
_cell_length_b                   4.5214(2)
_cell_length_c                   7.3616(6)
_cell_angle_alpha               90.0000(0)
_cell_angle_beta                90.0000(0)
_cell_angle_gamma              120.0000(0)

_symmetry_space_group_name_H-M     'P 1'
_symmetry_Int_Tables_number         1
_symmetry_cell_setting             triclinic
loop_
_symmetry_equiv_pos_as_xyz
'+x,+y,+z'

loop_
_atom_site_label
_atom_site_type_symbol
_atom_site_occupancy
_atom_site_fract_x
_atom_site_fract_y
_atom_site_fract_z
    H1     H 0.5000      0.6667    0.3333    0.8020
    H1     H 0.5000      0.3333    0.6667    0.3020
    H2     H 0.5000      0.4370    0.8740    0.0280
    H2     H 0.5000      0.1260    0.5630    0.0280
    H2     H 0.5000      0.5630    0.1260    0.5280
    H2     H 0.5000      0.5630    0.4370    0.5280
    H2     H 0.5000      0.5630    0.4370    0.9720
    H2     H 0.5000      0.1260    0.5630    0.4720
    O1     O 1.0000      0.6667    0.3333    0.5618
    O1     O 1.0000      0.6667    0.3333    0.9382
    O1     O 1.0000      0.3333    0.6667    0.4382
    O1     O 1.0000      0.3333    0.6667    0.0618

